
     Program PWSCF v.7.0 starts on 27Jan2023 at 11:55:32 
        Git branch: master
        Last git commit: 28725dfbb9ee577d70cbdc372282dc9039605ca5
        Last git commit date: Tue Dec 21 15:37:27 2021 +0000
        Last git commit subject: Merge branch merge-develop-to-master into mas..

     This program is part of the open-source Quantum ESPRESSO suite
     for quantum simulation of materials; please cite
         "P. Giannozzi et al., J. Phys.:Condens. Matter 21 395502 (2009);
         "P. Giannozzi et al., J. Phys.:Condens. Matter 29 465901 (2017);
         "P. Giannozzi et al., J. Chem. Phys. 152 154105 (2020);
          URL http://www.quantum-espresso.org", 
     in publications or presentations arising from this work. More details at
     http://www.quantum-espresso.org/quote

     Parallel version (MPI), running on    30 processors

     MPI processes distributed on     1 nodes
     R & G space division:  proc/nbgrp/npool/nimage =      30
     755583 MiB available memory on the printing compute node when the environment starts

     Reading input from pwscf.in

     Current dimensions of program PWSCF are:
     Max number of different atomic species (ntypx) = 10
     Max number of k-points (npk) =  40000
     Max angular momentum in pseudopotentials (lmaxx) =  4

     Subspace diagonalization in iterative solution of the eigenvalue problem:
     a serial algorithm will be used


     Parallelization info
     --------------------
     sticks:   dense  smooth     PW     G-vecs:    dense   smooth      PW
     Min         114      77     22                 5043     2825     428
     Max         116      78     23                 5046     2830     431
     Sum        3433    2337    665               151323    84823   12893

     Using Slab Decomposition



     bravais-lattice index     =            0
     lattice parameter (alat)  =      10.3880  a.u.
     unit-cell volume          =    1120.9627 (a.u.)^3
     number of atoms/cell      =           12
     number of atomic types    =            2
     number of electrons       =        64.00
     number of Kohn-Sham states=           48
     kinetic-energy cutoff     =      68.0000  Ry
     charge density cutoff     =     400.0000  Ry
     scf convergence threshold =      2.4E-09
     mixing beta               =       0.4000
     number of iterations used =            8  plain     mixing
     Exchange-correlation= PBESOL
                           (   1   4  10   8   0   0   0)

     celldm(1)=  10.387963  celldm(2)=   0.000000  celldm(3)=   0.000000
     celldm(4)=   0.000000  celldm(5)=   0.000000  celldm(6)=   0.000000

     crystal axes: (cart. coord. in units of alat)
               a(1) = (   1.000000   0.000000   0.000000 )  
               a(2) = (   0.000000   1.000000   0.000000 )  
               a(3) = (   0.000000   0.000000   1.000000 )  

     reciprocal axes: (cart. coord. in units 2 pi/alat)
               b(1) = (  1.000000  0.000000  0.000000 )  
               b(2) = (  0.000000  1.000000  0.000000 )  
               b(3) = (  0.000000  0.000000  1.000000 )  


     PseudoPot. # 1 for C  read from file:
     ./pseudo/C.pbesol-n-rrkjus_psl.1.0.0.UPF
     MD5 check sum: fe7b32af6a6604c7e0f4d272fa780851
     Pseudo is Ultrasoft + core correction, Zval =  4.0
     Generated using &quot;atomic&quot; code by A. Dal Corso  v.6.3MaX
     Using radial grid of 1073 points,  4 beta functions with: 
                l(1) =   0
                l(2) =   0
                l(3) =   1
                l(4) =   1
     Q(r) pseudized with 0 coefficients 


     PseudoPot. # 2 for O  read from file:
     ./pseudo/O.pbesol-n-rrkjus_psl.1.0.0.UPF
     MD5 check sum: 69b2cf9905362d8720b1d83b4ba3171b
     Pseudo is Ultrasoft + core correction, Zval =  6.0
     Generated using &quot;atomic&quot; code by A. Dal Corso  v.6.3MaX
     Using radial grid of 1095 points,  4 beta functions with: 
                l(1) =   0
                l(2) =   0
                l(3) =   1
                l(4) =   1
     Q(r) pseudized with 0 coefficients 


     atomic species   valence    mass     pseudopotential
        C              4.00    12.01070     C ( 1.00)
        O              6.00    15.99940     O ( 1.00)

     No symmetry found



   Cartesian axes

     site n.     atom                  positions (alat units)
         1           C   tau(   1) = (   0.0000000   0.0000000   0.0000000  )
         2           C   tau(   2) = (   0.5000000   0.0000000   0.5000000  )
         3           C   tau(   3) = (   0.5000000   0.5000000   0.0000000  )
         4           C   tau(   4) = (   0.0000000   0.5000000   0.5000000  )
         5           O   tau(   5) = (   0.1225370   0.1225370   0.1225370  )
         6           O   tau(   6) = (   0.8774630   0.8774630   0.8774630  )
         7           O   tau(   7) = (   0.3774630   0.8774630   0.6225370  )
         8           O   tau(   8) = (   0.6225370   0.1225370   0.3774630  )
         9           O   tau(   9) = (   0.6225370   0.3774630   0.8774630  )
        10           O   tau(  10) = (   0.3774630   0.6225370   0.1225370  )
        11           O   tau(  11) = (   0.8774630   0.6225370   0.3774630  )
        12           O   tau(  12) = (   0.1225370   0.3774630   0.6225370  )

     number of k points=   260  Marzari-Vanderbilt smearing, width (Ry)=  0.0147

     Number of k-points >= 100: set verbosity='high' to print them.

     Dense  grid:   151323 G-vectors     FFT dimensions: (  72,  72,  72)

     Smooth grid:    84823 G-vectors     FFT dimensions: (  60,  60,  60)

     Estimated max dynamical RAM per process >      77.27 MB

     Estimated total dynamical RAM >       2.26 GB

     Check: negative core charge=   -0.000004

     Initial potential from superposition of free atoms

     starting charge      63.9998, renormalised to      64.0000
     Starting wfcs are   48 randomized atomic wfcs

     total cpu time spent up to now is        3.5 secs

     per-process dynamical memory:   176.9 Mb

     Self-consistent Calculation

     iteration #  1     ecut=    68.00 Ry     beta= 0.40
     Davidson diagonalization with overlap
     ethr =  1.00E-02,  avg # of iterations =  6.2

     total cpu time spent up to now is       19.7 secs

     total energy              =    -307.60541069 Ry
     estimated scf accuracy    <       1.42011814 Ry

     iteration #  2     ecut=    68.00 Ry     beta= 0.40
     Davidson diagonalization with overlap
     ethr =  2.22E-03,  avg # of iterations =  2.0

     total cpu time spent up to now is       30.6 secs

     total energy              =    -308.00825192 Ry
     estimated scf accuracy    <       0.15986005 Ry

     iteration #  3     ecut=    68.00 Ry     beta= 0.40
     Davidson diagonalization with overlap
     ethr =  2.50E-04,  avg # of iterations =  6.0

     total cpu time spent up to now is       49.2 secs

     total energy              =    -308.09946406 Ry
     estimated scf accuracy    <       0.06527562 Ry

     iteration #  4     ecut=    68.00 Ry     beta= 0.40
     Davidson diagonalization with overlap
     ethr =  1.02E-04,  avg # of iterations =  3.2

     total cpu time spent up to now is       60.7 secs

     total energy              =    -308.10949123 Ry
     estimated scf accuracy    <       0.01606386 Ry

     iteration #  5     ecut=    68.00 Ry     beta= 0.40
     Davidson diagonalization with overlap
     ethr =  2.51E-05,  avg # of iterations =  6.9

     total cpu time spent up to now is       76.7 secs

     total energy              =    -308.11364377 Ry
     estimated scf accuracy    <       0.00147380 Ry

     iteration #  6     ecut=    68.00 Ry     beta= 0.40
     Davidson diagonalization with overlap
     c_bands:  1 eigenvalues not converged
     c_bands:  1 eigenvalues not converged
     ethr =  2.30E-06,  avg # of iterations =  8.7

     total cpu time spent up to now is       96.5 secs

     total energy              =    -308.11391382 Ry
     estimated scf accuracy    <       0.00094586 Ry

     iteration #  7     ecut=    68.00 Ry     beta= 0.40
     Davidson diagonalization with overlap
     ethr =  1.48E-06,  avg # of iterations =  2.2

     total cpu time spent up to now is      107.3 secs

     total energy              =    -308.11405134 Ry
     estimated scf accuracy    <       0.00009467 Ry

     iteration #  8     ecut=    68.00 Ry     beta= 0.40
     Davidson diagonalization with overlap
     ethr =  1.48E-07,  avg # of iterations =  5.4

     total cpu time spent up to now is      125.0 secs

     total energy              =    -308.11415605 Ry
     estimated scf accuracy    <       0.00004051 Ry

     iteration #  9     ecut=    68.00 Ry     beta= 0.40
     Davidson diagonalization with overlap
     ethr =  6.33E-08,  avg # of iterations =  1.8

     total cpu time spent up to now is      134.2 secs

     total energy              =    -308.11415320 Ry
     estimated scf accuracy    <       0.00001247 Ry

     iteration # 10     ecut=    68.00 Ry     beta= 0.40
     Davidson diagonalization with overlap
     ethr =  1.95E-08,  avg # of iterations =  4.1

     total cpu time spent up to now is      147.8 secs

     total energy              =    -308.11415848 Ry
     estimated scf accuracy    <       0.00000129 Ry

     iteration # 11     ecut=    68.00 Ry     beta= 0.40
     Davidson diagonalization with overlap
     ethr =  2.01E-09,  avg # of iterations =  4.0

     total cpu time spent up to now is      160.8 secs

     total energy              =    -308.11415900 Ry
     estimated scf accuracy    <       0.00000012 Ry

     iteration # 12     ecut=    68.00 Ry     beta= 0.40
     Davidson diagonalization with overlap
     ethr =  1.89E-10,  avg # of iterations =  5.9

     total cpu time spent up to now is      179.5 secs

     total energy              =    -308.11415915 Ry
     estimated scf accuracy    <       0.00000006 Ry

     iteration # 13     ecut=    68.00 Ry     beta= 0.40
     Davidson diagonalization with overlap
     ethr =  8.64E-11,  avg # of iterations =  2.3

     total cpu time spent up to now is      190.3 secs

     End of self-consistent calculation

     Number of k-points >= 100: set verbosity='high' to print the bands.

     the Fermi energy is     0.3353 ev

!    total energy              =    -308.11415916 Ry
     estimated scf accuracy    <          1.6E-09 Ry
     smearing contrib. (-TS)   =       0.00000000 Ry
     internal energy E=F+TS    =    -308.11415916 Ry

     The total energy is F=E-TS. E is the sum of the following terms:
     one-electron contribution =    -178.95591216 Ry
     hartree contribution      =     113.91198600 Ry
     xc contribution           =     -76.25213172 Ry
     ewald contribution        =    -166.81810128 Ry

     convergence has been achieved in  13 iterations

     Forces acting on atoms (cartesian axes, Ry/au):

     atom    1 type  1   force =     0.00000100    0.00000131    0.00000086
     atom    2 type  1   force =     0.00000009    0.00000042   -0.00000003
     atom    3 type  1   force =     0.00000023   -0.00000022   -0.00000002
     atom    4 type  1   force =    -0.00000028    0.00000047   -0.00000068
     atom    5 type  2   force =     0.00805420    0.00805484    0.00805454
     atom    6 type  2   force =    -0.00805897   -0.00805916   -0.00805881
     atom    7 type  2   force =    -0.00805567   -0.00805565    0.00805533
     atom    8 type  2   force =     0.00805797    0.00805845   -0.00805810
     atom    9 type  2   force =     0.00805541   -0.00805548   -0.00805526
     atom   10 type  2   force =    -0.00805848    0.00805874    0.00805866
     atom   11 type  2   force =    -0.00805499    0.00805568   -0.00805584
     atom   12 type  2   force =     0.00805948   -0.00805941    0.00805935

     Total force =     0.039471     Total SCF correction =     0.000142


     Computing stress (Cartesian axis) and pressure

          total   stress  (Ry/bohr**3)                   (kbar)     P=       17.55
   0.00011930  -0.00000000  -0.00000000           17.55       -0.00       -0.00
  -0.00000000   0.00011930  -0.00000000           -0.00       17.55       -0.00
  -0.00000000  -0.00000000   0.00011930           -0.00       -0.00       17.55


     Writing all to output data dir ./out/CO2.save/

     init_run     :      3.17s CPU      3.35s WALL (       1 calls)
     electrons    :    184.06s CPU    186.87s WALL (       1 calls)
     forces       :      0.94s CPU      0.95s WALL (       1 calls)
     stress       :      4.54s CPU      4.54s WALL (       1 calls)

     Called by init_run:
     wfcinit      :      3.02s CPU      3.17s WALL (       1 calls)
     potinit      :      0.03s CPU      0.03s WALL (       1 calls)
     hinit0       :      0.08s CPU      0.09s WALL (       1 calls)

     Called by electrons:
     c_bands      :    167.66s CPU    170.05s WALL (      13 calls)
     sum_band     :     16.15s CPU     16.57s WALL (      13 calls)
     v_of_rho     :      0.14s CPU      0.14s WALL (      14 calls)
     newd         :      0.07s CPU      0.08s WALL (      14 calls)
     mix_rho      :      0.02s CPU      0.02s WALL (      13 calls)

     Called by c_bands:
     init_us_2    :      1.47s CPU      1.50s WALL (    7540 calls)
     init_us_2:cp :      1.45s CPU      1.48s WALL (    7540 calls)
     cegterg      :    164.21s CPU    166.54s WALL (    3380 calls)

     Called by *egterg:
     cdiaghg      :     48.14s CPU     48.45s WALL (   18636 calls)
     h_psi        :     90.88s CPU     92.73s WALL (   18896 calls)
     s_psi        :      3.11s CPU      3.18s WALL (   18896 calls)
     g_psi        :      0.65s CPU      0.66s WALL (   15256 calls)

     Called by h_psi:
     h_psi:calbec :      6.76s CPU      6.91s WALL (   18896 calls)
     vloc_psi     :     79.98s CPU     81.59s WALL (   18896 calls)
     add_vuspsi   :      3.53s CPU      3.61s WALL (   18896 calls)

     General routines
     calbec       :      9.17s CPU      9.37s WALL (   23576 calls)
     fft          :      0.10s CPU      0.11s WALL (     205 calls)
     ffts         :      0.00s CPU      0.00s WALL (      27 calls)
     fftw         :     82.49s CPU     84.18s WALL ( 1170082 calls)
     interpolate  :      0.01s CPU      0.01s WALL (      14 calls)

     Parallel routines

     PWSCF        :   3m15.42s CPU   3m19.31s WALL


   This run was terminated on:  11:58:51  27Jan2023            

=------------------------------------------------------------------------------=
   JOB DONE.
=------------------------------------------------------------------------------=
