[Molden Format]
made by pyscf v[2.1.1]
[Atoms] (AU)
C   1   6     0.00000000000000     0.00000000000000     0.00000000000000
C   2   6     0.94486306228253     0.00000000000000     0.94486306228253
C   3   6     0.94486306228253     0.94486306228253     0.00000000000000
C   4   6     0.00000000000000     0.94486306228253     0.94486306228253
O   5   8     0.23156133233131     0.23156133233131     0.23156133233131
O   6   8     1.65816479223376     1.65816479223376     1.65816479223376
O   7   8     0.71330172995122     1.65816479223376     1.17642439461384
O   8   8     1.17642439461384     0.23156133233131     0.71330172995122
O   9   8     1.17642439461384     0.71330172995122     1.65816479223376
O   10   8     0.71330172995122     1.17642439461384     0.23156133233131
O   11   8     1.65816479223376     1.17642439461384     0.71330172995122
O   12   8     0.23156133233131     0.71330172995122     1.17642439461384
[GTO]
1 0
 s    6 1.00
           742.7370491  0.0091635962805161
           136.1800249    0.04936149294278
           38.09826352    0.16853830490949
           13.08778177    0.37056279972087
           5.082368648    0.41649152982346
           2.093200076    0.13033408410734
 s    6 1.00
            30.4972395  -0.013252788089787
           6.036199601  -0.046991710139244
           1.876046337  -0.033785371509457
           0.721782647    0.25024178609598
          0.3134706954    0.59511725259043
           0.143686555    0.24070617629613
 p    6 1.00
            30.4972395  0.0037596966004791
           6.036199601   0.037679369804802
           1.876046337    0.17389674352216
           0.721782647    0.41803643475328
          0.3134706954    0.42585954775427
           0.143686555    0.10170829551296

2 0
 s    6 1.00
           742.7370491  0.0091635962805161
           136.1800249    0.04936149294278
           38.09826352    0.16853830490949
           13.08778177    0.37056279972087
           5.082368648    0.41649152982346
           2.093200076    0.13033408410734
 s    6 1.00
            30.4972395  -0.013252788089787
           6.036199601  -0.046991710139244
           1.876046337  -0.033785371509457
           0.721782647    0.25024178609598
          0.3134706954    0.59511725259043
           0.143686555    0.24070617629613
 p    6 1.00
            30.4972395  0.0037596966004791
           6.036199601   0.037679369804802
           1.876046337    0.17389674352216
           0.721782647    0.41803643475328
          0.3134706954    0.42585954775427
           0.143686555    0.10170829551296

3 0
 s    6 1.00
           742.7370491  0.0091635962805161
           136.1800249    0.04936149294278
           38.09826352    0.16853830490949
           13.08778177    0.37056279972087
           5.082368648    0.41649152982346
           2.093200076    0.13033408410734
 s    6 1.00
            30.4972395  -0.013252788089787
           6.036199601  -0.046991710139244
           1.876046337  -0.033785371509457
           0.721782647    0.25024178609598
          0.3134706954    0.59511725259043
           0.143686555    0.24070617629613
 p    6 1.00
            30.4972395  0.0037596966004791
           6.036199601   0.037679369804802
           1.876046337    0.17389674352216
           0.721782647    0.41803643475328
          0.3134706954    0.42585954775427
           0.143686555    0.10170829551296

4 0
 s    6 1.00
           742.7370491  0.0091635962805161
           136.1800249    0.04936149294278
           38.09826352    0.16853830490949
           13.08778177    0.37056279972087
           5.082368648    0.41649152982346
           2.093200076    0.13033408410734
 s    6 1.00
            30.4972395  -0.013252788089787
           6.036199601  -0.046991710139244
           1.876046337  -0.033785371509457
           0.721782647    0.25024178609598
          0.3134706954    0.59511725259043
           0.143686555    0.24070617629613
 p    6 1.00
            30.4972395  0.0037596966004791
           6.036199601   0.037679369804802
           1.876046337    0.17389674352216
           0.721782647    0.41803643475328
          0.3134706954    0.42585954775427
           0.143686555    0.10170829551296

5 0
 s    6 1.00
           1355.584234  0.0091635962805625
           248.5448855    0.04936149294303
           69.53390229    0.16853830491035
           23.88677211    0.37056279972275
           9.275932609    0.41649152982557
           3.820341298      0.130334084108
 s    6 1.00
           52.18776196  -0.013252788089709
           10.32932006  -0.046991710138969
           3.210344977  -0.033785371509258
           1.235135428    0.25024178609451
           0.536420158    0.59511725258694
           0.245880606    0.24070617629472
 p    6 1.00
           52.18776196  0.0037596966004099
           10.32932006   0.037679369804108
           3.210344977    0.17389674351896
           1.235135428    0.41803643474557
           0.536420158    0.42585954774642
           0.245880606    0.10170829551109

6 0
 s    6 1.00
           1355.584234  0.0091635962805625
           248.5448855    0.04936149294303
           69.53390229    0.16853830491035
           23.88677211    0.37056279972275
           9.275932609    0.41649152982557
           3.820341298      0.130334084108
 s    6 1.00
           52.18776196  -0.013252788089709
           10.32932006  -0.046991710138969
           3.210344977  -0.033785371509258
           1.235135428    0.25024178609451
           0.536420158    0.59511725258694
           0.245880606    0.24070617629472
 p    6 1.00
           52.18776196  0.0037596966004099
           10.32932006   0.037679369804108
           3.210344977    0.17389674351896
           1.235135428    0.41803643474557
           0.536420158    0.42585954774642
           0.245880606    0.10170829551109

7 0
 s    6 1.00
           1355.584234  0.0091635962805625
           248.5448855    0.04936149294303
           69.53390229    0.16853830491035
           23.88677211    0.37056279972275
           9.275932609    0.41649152982557
           3.820341298      0.130334084108
 s    6 1.00
           52.18776196  -0.013252788089709
           10.32932006  -0.046991710138969
           3.210344977  -0.033785371509258
           1.235135428    0.25024178609451
           0.536420158    0.59511725258694
           0.245880606    0.24070617629472
 p    6 1.00
           52.18776196  0.0037596966004099
           10.32932006   0.037679369804108
           3.210344977    0.17389674351896
           1.235135428    0.41803643474557
           0.536420158    0.42585954774642
           0.245880606    0.10170829551109

8 0
 s    6 1.00
           1355.584234  0.0091635962805625
           248.5448855    0.04936149294303
           69.53390229    0.16853830491035
           23.88677211    0.37056279972275
           9.275932609    0.41649152982557
           3.820341298      0.130334084108
 s    6 1.00
           52.18776196  -0.013252788089709
           10.32932006  -0.046991710138969
           3.210344977  -0.033785371509258
           1.235135428    0.25024178609451
           0.536420158    0.59511725258694
           0.245880606    0.24070617629472
 p    6 1.00
           52.18776196  0.0037596966004099
           10.32932006   0.037679369804108
           3.210344977    0.17389674351896
           1.235135428    0.41803643474557
           0.536420158    0.42585954774642
           0.245880606    0.10170829551109

9 0
 s    6 1.00
           1355.584234  0.0091635962805625
           248.5448855    0.04936149294303
           69.53390229    0.16853830491035
           23.88677211    0.37056279972275
           9.275932609    0.41649152982557
           3.820341298      0.130334084108
 s    6 1.00
           52.18776196  -0.013252788089709
           10.32932006  -0.046991710138969
           3.210344977  -0.033785371509258
           1.235135428    0.25024178609451
           0.536420158    0.59511725258694
           0.245880606    0.24070617629472
 p    6 1.00
           52.18776196  0.0037596966004099
           10.32932006   0.037679369804108
           3.210344977    0.17389674351896
           1.235135428    0.41803643474557
           0.536420158    0.42585954774642
           0.245880606    0.10170829551109

10 0
 s    6 1.00
           1355.584234  0.0091635962805625
           248.5448855    0.04936149294303
           69.53390229    0.16853830491035
           23.88677211    0.37056279972275
           9.275932609    0.41649152982557
           3.820341298      0.130334084108
 s    6 1.00
           52.18776196  -0.013252788089709
           10.32932006  -0.046991710138969
           3.210344977  -0.033785371509258
           1.235135428    0.25024178609451
           0.536420158    0.59511725258694
           0.245880606    0.24070617629472
 p    6 1.00
           52.18776196  0.0037596966004099
           10.32932006   0.037679369804108
           3.210344977    0.17389674351896
           1.235135428    0.41803643474557
           0.536420158    0.42585954774642
           0.245880606    0.10170829551109

11 0
 s    6 1.00
           1355.584234  0.0091635962805625
           248.5448855    0.04936149294303
           69.53390229    0.16853830491035
           23.88677211    0.37056279972275
           9.275932609    0.41649152982557
           3.820341298      0.130334084108
 s    6 1.00
           52.18776196  -0.013252788089709
           10.32932006  -0.046991710138969
           3.210344977  -0.033785371509258
           1.235135428    0.25024178609451
           0.536420158    0.59511725258694
           0.245880606    0.24070617629472
 p    6 1.00
           52.18776196  0.0037596966004099
           10.32932006   0.037679369804108
           3.210344977    0.17389674351896
           1.235135428    0.41803643474557
           0.536420158    0.42585954774642
           0.245880606    0.10170829551109

12 0
 s    6 1.00
           1355.584234  0.0091635962805625
           248.5448855    0.04936149294303
           69.53390229    0.16853830491035
           23.88677211    0.37056279972275
           9.275932609    0.41649152982557
           3.820341298      0.130334084108
 s    6 1.00
           52.18776196  -0.013252788089709
           10.32932006  -0.046991710138969
           3.210344977  -0.033785371509258
           1.235135428    0.25024178609451
           0.536420158    0.59511725258694
           0.245880606    0.24070617629472
 p    6 1.00
           52.18776196  0.0037596966004099
           10.32932006   0.037679369804108
           3.210344977    0.17389674351896
           1.235135428    0.41803643474557
           0.536420158    0.42585954774642
           0.245880606    0.10170829551109

[5d]
[7f]
[9g]

[MO]
 Sym= A
 Ene=               0
 Spin= Alpha
 Occup=    1.00000
   1       0.2770623255848
   2      0.28274070246195
   3     0.075860392390583
   4     0.075993938317331
   5     0.075847717204279
   6     0.004360102667582
   7    -0.0011337030232249
   8      -0.1057551031053
   9     0.015290028024669
  10     -0.01655716077104
  11    0.0044893797980939
  12    -0.0024892282276121
  13    -0.016471112010961
  14     -0.10558135677215
  15     0.014669567953213
  16    0.0045213012062486
  17    -0.0022102540969036
  18     0.014685684345006
  19    -0.016488537419998
  20     -0.10579957192875
  21      0.94637264631064
  22      0.44577540312676
  23      0.16494274793486
  24       0.1646052811982
  25      0.16492657158977
  26    0.0085045983282341
  27      0.11699881605049
  28    -0.016080642689954
  29    -0.016084290132953
  30    -0.016087353892601
  31    -0.0020117360009391
  32    -0.039370534143671
  33    -0.026908670228045
  34    -0.017491907000806
  35    -0.0066681457394965
  36    0.0030206766992877
  37     -0.29752581065772
  38      0.22897736715639
  39    0.0076186775975145
  40      0.12569130719108
  41    -0.0020404871337725
  42    -0.039668538776563
  43    -0.0066860277420149
  44    -0.026871040846256
  45    -0.017461015327667
  46    0.0030277459359477
  47     -0.29731779330715
  48      0.12550919180143
  49      0.22893983474725
  50    0.0078044444992363
  51    -0.0020089155291891
  52    -0.039404164460861
  53    -0.017517250466887
  54    -0.0066675833323936
  55    -0.026946953375522
  56    0.0029905368452974
  57     -0.29778878988406
  58     0.007725179250741
  59      0.12562216418213
  60      0.22908423042616
 Sym= A
 Ene=               1
 Spin= Alpha
 Occup=    1.00000
   1    -0.00040085506904607
   2    -0.045926141660478
   3    0.0035851929525383
   4    0.0035179355516651
   5    0.0035095863302638
   6     0.037083451960561
   7      0.11187103998529
   8      0.01920373132608
   9     0.071005400313768
  10    -0.044693836421383
  11     0.035862290601643
  12      0.11133178458402
  13     -0.04509276124195
  14     0.019118367260895
  15     0.070869392284561
  16     0.035606039862044
  17      0.11102011823473
  18     0.070778678143327
  19     -0.04519379686495
  20     0.018991897747872
  21     0.011030898304673
  22      0.21820038382042
  23     0.038746445698822
  24     0.038474240304498
  25     0.038756624452485
  26       1.1037653330384
  27       1.2694549529393
  28     -0.25407948488358
  29     -0.25418474733209
  30     -0.25388286228723
  31    -0.007320687863054
  32     -0.47303093873887
  33     -0.26688450357599
  34    -0.013633469731853
  35     -0.14121435882847
  36    -0.019242895650991
  37     -0.17600054973072
  38     0.042793402108456
  39    -0.0026534544055232
  40      0.04714858597562
  41    -0.0073088375772263
  42     -0.47342192300103
  43     -0.14126721413366
  44     -0.26687095101816
  45    -0.013634975002049
  46     -0.01902481942106
  47     -0.17556288900185
  48     0.047426562469152
  49     0.042406958272619
  50    -0.0029599729112162
  51    -0.007331763517973
  52     -0.47332264087137
  53    -0.013608906302889
  54     -0.14098918938056
  55     -0.26681509760075
  56    -0.018951522316508
  57     -0.17550923210357
  58    -0.0030804752869377
  59      0.04767904221042
  60     0.042416576848706
 Sym= A
 Ene=               2
 Spin= Alpha
 Occup=    1.00000
   1     0.038016198999818
   2      0.38743925634397
   3    -0.011386975327415
   4    -0.045251642931206
   5    0.0039414814103995
   6      -1.1172132999416
   7     -0.95567150277156
   8       0.2617964835818
   9     -0.26635854606352
  10      0.11997457788937
  11     -0.55520365713509
  12     -0.32047359696253
  13     0.084137750419583
  14      0.19741241065539
  15     -0.15390828361229
  16     -0.51235830083366
  17     -0.45888139932841
  18     -0.21574635966806
  19      0.11696539567516
  20      0.27482023300088
  21     -0.10029049445249
  22     -0.72469544040717
  23     -0.21428670797649
  24     -0.10090511626771
  25     -0.20877560042342
  26     0.054849789328738
  27     -0.10456444363284
  28     0.058415955686332
  29     0.064902724325527
  30     0.056974806881149
  31    -0.0016600103487339
  32      0.19738692684884
  33    0.0063942925362486
  34    -0.0050974275587726
  35    -0.084736377472171
  36      0.21580365898885
  37      0.82482114771796
  38     -0.51170346150894
  39     -0.19068566790861
  40     0.039215211962681
  41    -0.012503650556683
  42      0.25345596766183
  43    -0.073595614629513
  44    0.0080813689256569
  45    -0.040350226389629
  46      0.10994872674239
  47      0.57943221666584
  48    -0.020445793909601
  49     -0.32733619738337
  50    -0.043943131693597
  51    0.0061512623501745
  52      0.34909168575946
  53    -0.026726461763745
  54     -0.15809222702347
  55    -0.0079959604519629
  56     0.096683352964364
  57      0.64903927837728
  58     0.026997836968169
  59     -0.10817384305596
  60     -0.34631089763701
 Sym= A
 Ene=               3
 Spin= Alpha
 Occup=    1.00000
   1    -0.014918287534986
   2     -0.14147838758538
   3    0.0065151942674514
   4    -0.065567945315189
   5     0.075354714923434
   6     -0.81115727299955
   7     -0.77736735148221
   8    -0.068138869571101
   9    -0.052455490499128
  10    -0.013413997566141
  11      0.92895308708283
  12       1.0792377373641
  13     -0.10170496165399
  14     -0.21169412169575
  15      0.25287614256368
  16      0.65639726326892
  17       0.3216128363737
  18     0.028705352172548
  19    -0.00073241017736035
  20     0.015525215236113
  21     0.036163298770466
  22      0.25805887289267
  23    -0.0097057841010281
  24      0.26623536742586
  25    -0.068287497337585
  26    -0.018492224121085
  27     0.039289089541006
  28    -0.023809207014911
  29    -0.0094127650426181
  30     -0.03233783097566
  31    -0.0025511561781748
  32     -0.31556912821669
  33     0.015502569495163
  34     0.055352468278711
  35      0.12160022949784
  36      0.15788665204106
  37      0.11445923630991
  38     -0.16907600816639
  39     -0.32972191005481
  40      0.22729906939261
  41    -0.023105899720666
  42    -0.080103500504405
  43     0.099550591522248
  44    0.0097598846641184
  45    -0.043005077817899
  46     -0.17358058872873
  47     -0.58958450032379
  48     -0.01157818347964
  49      0.37922841627769
  50      0.16440862786998
  51     0.028348968448734
  52      0.10821170818883
  53     0.013205662542057
  54     -0.10941481853019
  55    -0.028705018214713
  56     -0.13443734844913
  57     -0.25792963726784
  58      0.23647049245585
  59     -0.18102601775905
  60      0.21123133380685
 Sym= A
 Ene=               4
 Spin= Alpha
 Occup=    1.00000
   1    0.0031182873420326
   2     0.029133318918907
   3    -0.087510505809557
   4     0.039351903348939
   5      0.04531091588935
   6     0.088073206617891
   7      0.39587934219803
   8     -0.11997670636014
   9      0.11808453162131
  10    -0.053342983164299
  11      0.86180233920727
  12       0.6553066024425
  13     0.013622251720564
  14     0.065008840171193
  15     0.040232515108922
  16      -1.1046993618637
  17      -1.1768818887745
  18     -0.20411097305308
  19     0.063344188653497
  20      0.10844968624837
  21    -0.0073120916284948
  22    -0.052334198469584
  23      0.19022851479532
  24    -0.043507499856454
  25     -0.18495912602518
  26    0.0036074684701674
  27    -0.0083078027040288
  28     0.018405852366474
  29    -0.00037355438908417
  30    -0.004626209257294
  31    -0.031653989607478
  32     -0.10099220991108
  33       0.0240830270239
  34    -0.034965210215723
  35      0.12242818325717
  36    -0.0088038619110879
  37     -0.14618920018383
  38     0.066622114435749
  39    -0.057625610401817
  40      0.10682674722884
  41     0.018104308709942
  42      0.27888436587547
  43     -0.14707427392589
  44    -0.026335477910614
  45    -0.028667297283368
  46      -0.1716345284258
  47     -0.18651527468314
  48     -0.25226527178101
  49      0.21013405460951
  50      0.34439816775443
  51     0.013027225073766
  52     -0.12004262018459
  53     0.058547730481256
  54    0.0023633298598568
  55    0.0032092020959307
  56      0.21051195819908
  57      0.48031611047753
  58      -0.3009913438171
  59      0.13806344820326
  60     -0.36146050265274
 Sym= A
 Ene=               5
 Spin= Alpha
 Occup=    1.00000
   1      -1.0487612662003
   2       -1.076151251584
   3     -0.27420779411932
   4      -0.2731227919542
   5     -0.27414589831018
   6    -0.085588671942309
   7      0.31064630890137
   8    -0.080588149746689
   9     0.016969629981885
  10    -0.081053429520284
  11    -0.087866062622613
  12      0.30368062420115
  13    -0.079532256186289
  14    -0.079414480937918
  15     0.015641213580456
  16    -0.088291307046793
  17      0.30407070579072
  18       0.0157423190459
  19    -0.079731942597147
  20    -0.079556562811636
  21      0.64171820761569
  22       1.9087929105588
  23      0.45270632178983
  24      0.45206359123541
  25       0.4525042173881
  26    0.0026620412499706
  27     0.010979418477721
  28    -0.0056668272971011
  29    -0.0057237667704758
  30    -0.0056952738536386
  31    0.0060641741805875
  32    -0.0053373967743961
  33    -0.0068855157210043
  34    0.00025650705609986
  35    0.0046076357363469
  36    -0.030347472590275
  37     -0.52751421711454
  38      0.17953667812903
  39     -0.03021984697821
  40      0.13388936964474
  41    0.0060912653927134
  42    -0.0057828684646033
  43    0.0044754099655551
  44    -0.0070327409365753
  45    0.00046380600825011
  46    -0.029847047120419
  47     -0.52544111500944
  48       0.1334772650672
  49      0.17869660537461
  50    -0.030537413115503
  51    0.0060171697350585
  52    -0.0064192437208786
  53    0.00037814467700679
  54    0.0049295787909173
  55    -0.0069024867986868
  56    -0.029846355410984
  57     -0.52707226352775
  58    -0.031090708465193
  59        0.134031933652
  60      0.17873013691346
 Sym= A
 Ene=               6
 Spin= Alpha
 Occup=    1.00000
   1     0.019723986958161
   2     -0.15678872239856
   3     -0.16476200491651
   4       1.0182916603746
   5     -0.92893098063291
   6    -0.051318081996436
   7      0.98781997482046
   8    0.0091727746849731
   9      0.25710992766465
  10     -0.08979842278858
  11     0.070393822297804
  12     -0.55193392747872
  13      0.26566418071299
  14     -0.29008569950165
  15       0.1363380573249
  16    -0.036184983024398
  17    -0.072263479226377
  18     -0.20879370027529
  19     -0.29287595229064
  20      0.15783512975799
  21    -0.0059075622921092
  22      0.32886132617367
  23      0.46454098359591
  24      -2.2976042537605
  25       2.1109110639185
  26     0.002550791393794
  27     0.014590372672933
  28    -0.014960874811752
  29    -0.013702314599882
  30    0.0027272862686569
  31    0.0022518058866258
  32      0.18453901651758
  33     0.076347536733714
  34     0.036802966106836
  35     -0.20652053636922
  36     -0.10273031956312
  37      -1.4459769328094
  38      0.63401461639565
  39      0.28062704624469
  40      0.23908129026174
  41    -9.5588952349306e-05
  42    -0.099305582557011
  43    -0.061505824580146
  44    -0.035950670528233
  45     0.051803242289316
  46       0.1392543591742
  47       1.8400013008942
  48     -0.67288283137046
  49     -0.58494321354507
  50     -0.45835035039345
  51    -0.0046863770742144
  52     -0.19955813711112
  53    -0.077488237057831
  54      0.27637624841674
  55    -0.052985588375178
  56    -0.075422559451399
  57     -0.89706410203346
  58     0.098556859812701
  59      0.61562290552227
  60      0.11621547795018
 Sym= A
 Ene=               7
 Spin= Alpha
 Occup=    1.00000
   1    0.0089393673303363
   2    -0.068704321647893
   3      -1.1378806675755
   4      0.43012492175067
   5      0.67285678128595
   6    -0.063705244692351
   7      0.33098975492205
   8      0.25176788938473
   9     -0.17425711137359
  10     -0.34586587722509
  11    -0.012950503362681
  12      0.64708818195181
  13      0.10642687110673
  14    -0.097150980495117
  15      0.29325096754663
  16      0.06963273544602
  17     -0.81807929849918
  18    -0.040004559944433
  19      0.18143687256632
  20     -0.19892285531248
  21    -0.0027783811086471
  22      0.13592404383138
  23       2.5898575332284
  24     -0.91099919276191
  25      -1.5599695229816
  26    0.0011996964763609
  27    0.0069502067567961
  28    0.0050274334520798
  29    -0.014015381101302
  30    -0.0026238425074858
  31    -0.0027094995792963
  32    -0.071073712744122
  33    -0.013423345207514
  34    -0.073583631624133
  35      0.19623023621011
  36     -0.13015292492535
  37      -1.6517493308026
  38      0.42373061935805
  39      0.31346785107145
  40      0.77096655871906
  41     0.003404116124427
  42      0.20291986309645
  43     -0.27873272662519
  44     0.072011628361553
  45     0.068559825919192
  46    -0.021508526462048
  47     -0.39295376295558
  48     -0.19270648904095
  49      0.32172359413865
  50     0.092815297953026
  51    -0.0016249107910094
  52     -0.18000578847424
  53    0.0099638520560831
  54     0.085487441399224
  55    -0.065351343299686
  56      0.13419128548494
  57       1.8295556927225
  58     -0.43965581726165
  59     -0.50210581476517
  60     -0.67858836950434
 Sym= A
 Ene=               8
 Spin= Alpha
 Occup=    1.00000
   1     -0.41171365934548
   2       2.9258933492719
   3      0.48870529960032
   4      0.58287735584714
   5      0.48928146269508
   6      0.11330723448489
   7       -2.353504118834
   8      0.73806409104716
   9      -1.2385115564247
  10      0.75540516135517
  11      0.12463406510124
  12      -2.3236836790695
  13      0.76923582671273
  14      0.69650597254363
  15      -1.1936786856208
  16      0.12123337944918
  17      -2.3338032639944
  18      -1.2178733827758
  19      0.73546155779587
  20      0.72199646740338
  21      0.12411802125437
  22      -5.8555371922525
  23       -1.668873337656
  24      -1.8987950801178
  25      -1.6792543709877
  26    -0.049246698447928
  27     -0.31057324062221
  28      0.18077539674594
  29      0.18133725290346
  30      0.18251027819905
  31     0.016679430710634
  32      0.75358991295097
  33     0.083297444116079
  34    -0.069966483547708
  35    -0.049355903746731
  36      0.24090366154368
  37       3.0008811227105
  38     -0.92784775984958
  39      0.57741019508326
  40      -1.1008616597226
  41       0.0181490053646
  42      0.75963075181685
  43    -0.051304629157266
  44     0.079756796642036
  45    -0.068349435416419
  46      0.25417099265571
  47       3.1907259467602
  48      -1.1625133508687
  49     -0.99459397692116
  50      0.51969374902753
  51     0.016533125731662
  52      0.73703129040695
  53    -0.073859956222242
  54     -0.02600237607657
  55     0.078182963245052
  56      0.24837466412379
  57       3.1309003685585
  58      0.54366693798984
  59      -1.1033598603934
  60     -0.98574712902761
 Sym= A
 Ene=               9
 Spin= Alpha
 Occup=    1.00000
   1    -0.0048378924225956
   2       -1.989418844639
   3     -0.35438107335595
   4     -0.34349807282756
   5     -0.34990429834399
   6     0.067087580599096
   7     0.026863138350306
   8     -0.21886374733133
   9      -0.7585355477204
  10      -1.2214514380277
  11     0.063309298451509
  12    -0.038216925348277
  13      -1.1758649604718
  14     -0.19132166762228
  15     -0.76400340603612
  16     0.065887976802948
  17     0.017954040076348
  18     -0.73424331018384
  19       -1.161098049227
  20     -0.19830081608939
  21    -0.022821513525204
  22     -0.15438016472115
  23      0.20941166311442
  24      0.21903107221795
  25      0.20745396903497
  26     -0.12817446854333
  27      -4.0635338912041
  28        1.429071841266
  29        1.438822841553
  30       1.4326083938482
  31      0.16137866830118
  32       2.0578067098486
  33      0.32071763383489
  34     0.045452777936744
  35      0.37406834885158
  36    -0.039645805239065
  37       0.1959324961734
  38      0.24295467240538
  39      0.47430858208282
  40      0.19633543610874
  41      0.16327129096266
  42       2.0902928379556
  43      0.37536471089812
  44      0.30746301638514
  45     0.048317732680552
  46    -0.039214754658891
  47      0.19071650727548
  48      0.18921476004656
  49      0.23735948403824
  50       0.4717547519092
  51      0.16166291289354
  52       2.0670293404034
  53     0.051057002331125
  54      0.37461543562629
  55      0.31768114761804
  56    -0.039457597677909
  57      0.19298622735551
  58      0.46059210774488
  59      0.18038464612799
  60      0.23752998917702
 Sym= A
 Ene=              10
 Spin= Alpha
 Occup=    1.00000
   1       0.3889398622672
   2      -0.6854493915643
   3      -0.6873558904126
   4     -0.70132086645903
   5     -0.70282013332369
   6    -0.086920018658251
   7      0.86282079541914
   8      0.54220712837991
   9      0.52151600834936
  10     -0.30310092392975
  11    -0.086371202109032
  12      0.61104675377656
  13     -0.31974912684848
  14      0.44036748896737
  15      0.36221090018988
  16    -0.085374749736559
  17      0.54703590210917
  18      0.27800744839976
  19      -0.3565834156527
  20      0.46164494032388
  21     -0.15254207961296
  22      -5.3034251104163
  23     -0.22242585183275
  24     -0.22324107836562
  25     -0.17840644411125
  26    -0.030046915918682
  27     -0.68948656278319
  28      0.10446565793183
  29     0.077218136591399
  30      0.12853902362904
  31      0.02621714908564
  32      0.24333664288149
  33      0.10360618676576
  34     0.011635645291637
  35    -0.022136092464632
  36    -0.0095674747190205
  37       1.1694615751912
  38      -1.0032036839559
  39     -0.54336363521259
  40     -0.32701580831238
  41     0.011310891454795
  42     0.067941657930121
  43    -0.030566954979822
  44      0.12677729548693
  45     0.012283800878808
  46    0.0038557009668642
  47       1.2655137042794
  48     -0.35540857134598
  49     -0.94993508198453
  50     -0.49937408763302
  51     0.026013000831763
  52      0.21392912350847
  53    -0.0071155690866165
  54    -0.0051330527885383
  55      0.10796723537855
  56    -0.0069265421402894
  57       1.1222296411345
  58     -0.47970314735072
  59     -0.33276605926602
  60     -0.92459102224295
 Sym= A
 Ene=              11
 Spin= Alpha
 Occup=    1.00000
   1    -0.019739165757359
   2     0.090755436054214
   3     0.090447689400695
   4     -0.22932261800028
   5      0.25321254036149
   6     0.069259908199183
   7       4.3634468340582
   8      0.15350997711587
   9       2.8931866351581
  10      0.58263499607174
  11     0.025049477886402
  12      -2.0227610612729
  13     -0.45196828146804
  14     -0.59887054616308
  15       -1.481713211113
  16    -0.089157599774147
  17      -2.4647890370354
  18      -1.3891603966893
  19    -0.032932725400891
  20        0.422666108469
  21    0.0058101456792357
  22      0.17699174294308